Generated by trjconv : Generated by trjconv : Alanine in vacuum in water t= 4500.00000
   22
    1ACE   HH31    1   0.840   0.875   2.048  0.8148  0.4642 -2.1554
    1ACE    CH3    2   0.939   0.872   2.093 -0.2004  0.1275  0.2371
    1ACE   HH32    3   0.973   0.771   2.116  1.8280  0.8411  0.6320
    1ACE   HH33    4   0.922   0.923   2.188 -0.8182 -2.4990  1.6519
    1ACE      C    5   1.032   0.954   2.001  0.0976  0.3188 -0.5503
    1ACE      O    6   1.120   1.017   2.053 -0.3996 -0.3711  0.0343
    2ALA      N    7   1.009   0.961   1.868  0.3361 -0.1506  0.4459
    2ALA      H    8   0.941   0.897   1.830 -0.2463 -0.7223  2.3218
    2ALA     CA    9   1.109   1.010   1.775  0.1719  0.0707 -0.2209
    2ALA     HA   10   1.204   0.990   1.826  0.1896 -3.6307 -1.4629
    2ALA     CB   11   1.104   0.922   1.653 -0.0838 -0.6714  0.2628
    2ALA    HB1   12   1.007   0.939   1.606 -0.0155  0.5605  0.5215
    2ALA    HB2   13   1.173   0.963   1.579 -0.7946  0.5319  0.2365
    2ALA    HB3   14   1.125   0.817   1.674  1.3175 -0.2804  0.8984
    2ALA      C   15   1.096   1.162   1.739  0.1179 -0.1848 -0.1632
    2ALA      O   16   0.987   1.207   1.708 -0.0544  0.5812 -0.0424
    3NME      N   17   1.211   1.236   1.751 -0.1963 -0.0209 -0.2933
    3NME      H   18   1.291   1.201   1.801  1.3247  0.6727 -2.1374
    3NME    CH3   19   1.221   1.377   1.715  0.0657  0.2989  0.2293
    3NME   HH31   20   1.121   1.407   1.684  0.7599  2.1558 -0.3313
    3NME   HH32   21   1.244   1.429   1.808 -0.9250  0.0045  0.6439
    3NME   HH33   22   1.295   1.395   1.636 -0.0903  0.9038  0.2216
   2.72160   2.72160   2.72160
