Generated by trjconv : Generated by trjconv : Alanine in vacuum in water t= 4500.00000
   22
    1ACE   HH31    1   1.132   1.702   1.577  0.5654 -1.0452  0.1662
    1ACE    CH3    2   1.241   1.697   1.577  0.6000 -0.3048  0.2739
    1ACE   HH32    3   1.280   1.799   1.584 -3.0215  1.2154  0.6443
    1ACE   HH33    4   1.282   1.663   1.482  1.9223  1.7762  0.0216
    1ACE      C    5   1.298   1.634   1.702  0.5251 -0.5480 -0.7247
    1ACE      O    6   1.275   1.701   1.802 -0.1199  0.0661  0.5571
    2ALA      N    7   1.360   1.516   1.694 -0.3637 -0.0589  0.0640
    2ALA      H    8   1.381   1.469   1.607 -4.1245 -0.1418 -0.9826
    2ALA     CA    9   1.362   1.417   1.799 -0.2462 -0.3128 -0.6045
    2ALA     HA   10   1.445   1.428   1.869  1.0277 -3.6508 -1.4139
    2ALA     CB   11   1.229   1.413   1.877  0.0566  0.2215 -0.2946
    2ALA    HB1   12   1.230   1.325   1.942  1.2530  0.9645  0.7246
    2ALA    HB2   13   1.224   1.495   1.948  0.2658 -1.8332  2.2397
    2ALA    HB3   14   1.146   1.416   1.806 -1.5858  1.7113  1.5588
    2ALA      C   15   1.374   1.274   1.736 -0.1333  0.7240 -0.4550
    2ALA      O   16   1.327   1.260   1.624 -0.5596  0.2874 -0.4071
    3NME      N   17   1.446   1.177   1.801 -0.0622 -0.3786  0.6427
    3NME      H   18   1.496   1.208   1.883 -0.8915  1.5884  0.4782
    3NME    CH3   19   1.475   1.042   1.769  0.6840 -0.0083  0.2956
    3NME   HH31   20   1.583   1.025   1.773  0.6949  0.1945  0.9631
    3NME   HH32   21   1.434   0.968   1.838  0.4284  0.6597  0.8724
    3NME   HH33   22   1.457   1.034   1.662  0.9045  1.4996  0.1219
   2.72160   2.72160   2.72160
