Generated by trjconv : Generated by trjconv : Alanine in vacuum in water t= 4500.00000
   22
    1ACE   HH31    1   1.460   1.727   1.839  0.8539 -1.2712 -1.4453
    1ACE    CH3    2   1.356   1.751   1.816  0.8172 -0.8331 -0.8334
    1ACE   HH32    3   1.364   1.817   1.730  0.0824  1.1244  0.5271
    1ACE   HH33    4   1.298   1.806   1.890  2.2582 -0.7244  0.2712
    1ACE      C    5   1.282   1.624   1.779 -0.4996 -0.4771  0.8525
    1ACE      O    6   1.166   1.641   1.768 -0.0338  0.3682  0.1151
    2ALA      N    7   1.352   1.513   1.769 -1.1648  1.1442  0.5435
    2ALA      H    8   1.445   1.509   1.809  0.2676 -1.2844 -2.6223
    2ALA     CA    9   1.294   1.375   1.758 -0.0154 -0.2961  0.0712
    2ALA     HA   10   1.209   1.368   1.825  0.1114  0.0082  0.2666
    2ALA     CB   11   1.223   1.361   1.623  0.4996  0.1401 -0.9884
    2ALA    HB1   12   1.288   1.381   1.538  0.8680 -2.2363 -1.3355
    2ALA    HB2   13   1.184   1.259   1.618  3.5802 -1.2705  0.5065
    2ALA    HB3   14   1.137   1.426   1.609 -2.4111 -3.3552 -0.8688
    2ALA      C   15   1.391   1.258   1.785  0.3588 -0.3207  0.7319
    2ALA      O   16   1.392   1.211   1.898 -0.2290 -0.0173  0.6662
    3NME      N   17   1.470   1.218   1.684  0.1663  0.6179 -0.7117
    3NME      H   18   1.463   1.268   1.597  0.5601  1.3639 -0.3180
    3NME    CH3   19   1.586   1.134   1.711 -0.0902 -0.0587 -0.5577
    3NME   HH31   20   1.559   1.075   1.798 -0.0465  1.5310  0.5925
    3NME   HH32   21   1.615   1.061   1.637 -0.2669 -1.5908  0.8303
    3NME   HH33   22   1.667   1.198   1.747 -0.5884 -0.6795  1.8604
   2.72160   2.72160   2.72160
