Generated by trjconv : Generated by trjconv : Alanine in vacuum in water t= 4500.00000
   22
    1ACE   HH31    1   1.144   1.767   1.698 -0.2515  0.0058 -0.0024
    1ACE    CH3    2   1.250   1.755   1.719 -0.3233  0.4985  0.7123
    1ACE   HH32    3   1.283   1.793   1.816  1.5297 -1.7167  1.0541
    1ACE   HH33    4   1.313   1.800   1.642  1.5576  0.9605  2.4232
    1ACE      C    5   1.300   1.604   1.728 -0.5963 -0.2345  0.1707
    1ACE      O    6   1.420   1.576   1.706  0.0773 -0.2301 -0.6370
    2ALA      N    7   1.205   1.512   1.747  0.2831 -1.0881 -0.2519
    2ALA      H    8   1.108   1.540   1.752  0.9315  1.9411 -2.2680
    2ALA     CA    9   1.216   1.373   1.783 -1.2209  1.3369 -0.0233
    2ALA     HA   10   1.171   1.361   1.881  0.5884  2.6121  1.0079
    2ALA     CB   11   1.121   1.286   1.695  0.6423  0.2841  0.0909
    2ALA    HB1   12   1.157   1.285   1.592  0.6874 -1.2078  0.0989
    2ALA    HB2   13   1.124   1.189   1.745  2.8843  0.8219  1.1422
    2ALA    HB3   14   1.022   1.330   1.683  0.7867  0.2725 -1.2881
    2ALA      C   15   1.363   1.314   1.794  0.0977 -0.0498 -0.6568
    2ALA      O   16   1.423   1.311   1.902  0.3638 -0.1103  0.1915
    3NME      N   17   1.411   1.236   1.692 -0.3695 -0.4744 -0.0384
    3NME      H   18   1.361   1.238   1.604 -0.6688 -1.1963  0.1104
    3NME    CH3   19   1.500   1.126   1.715  0.0877  0.3248  0.2514
    3NME   HH31   20   1.498   1.055   1.632  2.6328 -0.8354  1.0920
    3NME   HH32   21   1.605   1.153   1.709  0.4967 -0.9036  1.3767
    3NME   HH33   22   1.467   1.093   1.813 -1.4833  0.1933 -0.2921
   2.72160   2.72160   2.72160
