Generated by trjconv : Generated by trjconv : Alanine in vacuum in water t= 4500.00000
   22
    1ACE   HH31    1   2.252   1.959   1.572  0.9930 -1.2665  0.0612
    1ACE    CH3    2   2.205   1.934   1.667  0.0401 -0.0515 -0.0586
    1ACE   HH32    3   2.124   2.002   1.691 -0.7999 -0.9134 -0.4205
    1ACE   HH33    4   2.278   1.935   1.748 -0.3030 -1.6940  0.3026
    1ACE      C    5   2.169   1.788   1.665 -0.1791 -0.2359 -0.1415
    1ACE      O    6   2.048   1.758   1.672  0.3871 -0.5362  0.2894
    2ALA      N    7   2.271   1.703   1.640  0.0487  0.3129  0.0535
    2ALA      H    8   2.366   1.736   1.644  0.9462 -2.1546  1.1308
    2ALA     CA    9   2.248   1.562   1.606  0.6757 -0.4764 -1.1598
    2ALA     HA   10   2.151   1.559   1.557 -0.6913  4.2160  0.7118
    2ALA     CB   11   2.352   1.529   1.494  0.3866  0.2035  0.2130
    2ALA    HB1   12   2.450   1.547   1.539  0.4139  0.7264 -0.0454
    2ALA    HB2   13   2.342   1.424   1.469 -0.5896  0.6278 -1.3168
    2ALA    HB3   14   2.330   1.597   1.412 -1.6975  1.2625  1.5400
    2ALA      C   15   2.250   1.457   1.727 -0.9056 -0.0756 -0.3157
    2ALA      O   16   2.357   1.415   1.770 -0.6002  0.5984 -0.2209
    3NME      N   17   2.134   1.406   1.756  0.2552  0.5739  1.1368
    3NME      H   18   2.051   1.450   1.718  1.3341  0.9218 -0.9227
    3NME    CH3   19   2.112   1.306   1.858 -0.0009 -0.8861 -0.0713
    3NME   HH31   20   2.086   1.208   1.818 -1.3303 -0.8275  0.5966
    3NME   HH32   21   2.205   1.282   1.908  0.4847  1.6793  0.4168
    3NME   HH33   22   2.039   1.337   1.932  0.1305  2.4295 -1.1357
   2.72160   2.72160   2.72160
