Generated by trjconv : Generated by trjconv : Alanine in vacuum in water t= 4500.00000
   22
    1ACE   HH31    1   1.317   1.866   1.788  0.3141  1.1480 -1.3837
    1ACE    CH3    2   1.358   1.778   1.739 -0.2641  0.0369  0.0646
    1ACE   HH32    3   1.463   1.778   1.767 -0.8392  0.6704  2.3929
    1ACE   HH33    4   1.337   1.803   1.635  0.5375  1.0341  0.1246
    1ACE      C    5   1.296   1.642   1.787  0.1088  0.2158  0.3408
    1ACE      O    6   1.193   1.656   1.857  0.2707  0.3456 -1.1281
    2ALA      N    7   1.356   1.523   1.761 -0.1032 -1.2613  0.3781
    2ALA      H    8   1.443   1.530   1.711 -1.1691 -1.5358 -1.6031
    2ALA     CA    9   1.314   1.388   1.798  0.7680 -0.2501 -0.2545
    2ALA     HA   10   1.319   1.373   1.906 -1.0745 -0.1982 -0.1218
    2ALA     CB   11   1.174   1.363   1.744 -0.9883  0.6122  0.7903
    2ALA    HB1   12   1.160   1.375   1.636 -1.5806  1.2416  0.9285
    2ALA    HB2   13   1.141   1.267   1.783  2.5611 -1.3009 -0.4618
    2ALA    HB3   14   1.107   1.436   1.788 -1.3013 -0.2085  1.7043
    2ALA      C   15   1.415   1.285   1.736 -0.5052 -0.0894  0.7784
    2ALA      O   16   1.514   1.318   1.671  0.0381  0.1732  0.1910
    3NME      N   17   1.377   1.160   1.745  0.4002  0.0817 -0.4972
    3NME      H   18   1.284   1.137   1.778 -0.1216  0.9049 -1.3498
    3NME    CH3   19   1.470   1.061   1.710  0.4160  0.1895 -0.1634
    3NME   HH31   20   1.446   0.959   1.741  0.3922 -0.2293 -1.5218
    3NME   HH32   21   1.504   1.067   1.607 -2.1298 -0.6167 -1.1123
    3NME   HH33   22   1.545   1.076   1.789  0.8713 -2.0244 -0.1021
   2.72160   2.72160   2.72160
