Generated by trjconv : Generated by trjconv : Alanine in vacuum in water t= 4500.00000
   22
    1ACE   HH31    1   1.347   1.802   1.904 -0.0967  1.1504 -0.9311
    1ACE    CH3    2   1.346   1.750   1.808  0.2495  0.2909 -0.4668
    1ACE   HH32    3   1.445   1.755   1.762  0.1555 -0.6601 -0.7964
    1ACE   HH33    4   1.275   1.808   1.751  0.0004  1.2735  0.7921
    1ACE      C    5   1.300   1.611   1.818  0.2525 -0.7062  0.0737
    1ACE      O    6   1.286   1.564   1.928 -0.4186  0.1622 -0.1425
    2ALA      N    7   1.284   1.538   1.711 -0.3892 -0.1839  0.4081
    2ALA      H    8   1.315   1.577   1.623  2.2052 -0.6121  1.0353
    2ALA     CA    9   1.235   1.399   1.706  0.5503 -0.4963 -0.3495
    2ALA     HA   10   1.170   1.370   1.789  0.1595  0.1231 -0.4277
    2ALA     CB   11   1.158   1.383   1.580 -0.2523 -0.0198  0.2807
    2ALA    HB1   12   1.222   1.411   1.496 -0.1311 -0.3354  0.2653
    2ALA    HB2   13   1.130   1.278   1.567 -2.5931  0.6246 -0.3726
    2ALA    HB3   14   1.066   1.440   1.584  0.3703  0.9400  2.6007
    2ALA      C   15   1.352   1.309   1.716  0.5051 -0.0087 -0.2415
    2ALA      O   16   1.399   1.263   1.617  0.1906  0.7044  0.0507
    3NME      N   17   1.407   1.297   1.836 -0.1845  0.1420  0.2468
    3NME      H   18   1.386   1.371   1.901 -1.6278 -0.2808  0.2976
    3NME    CH3   19   1.529   1.213   1.865  0.0907 -0.2816 -0.1434
    3NME   HH31   20   1.614   1.253   1.810 -1.5816  0.5307 -2.2718
    3NME   HH32   21   1.547   1.225   1.972 -0.6028 -0.7541  0.0395
    3NME   HH33   22   1.524   1.106   1.846 -1.4320 -0.6708  2.0298
   2.72160   2.72160   2.72160
