Generated by trjconv : Generated by trjconv : Alanine in vacuum in water t= 4500.00000
   22
    1ACE   HH31    1   1.714   1.224   1.986  0.7861  0.6400  1.3416
    1ACE    CH3    2   1.766   1.147   1.929 -1.0640  0.1674  0.1921
    1ACE   HH32    3   1.745   1.164   1.824  0.7693 -1.1023 -0.4411
    1ACE   HH33    4   1.736   1.044   1.952 -3.8259  1.0618  1.0013
    1ACE      C    5   1.911   1.174   1.954 -0.0166  0.1621 -0.0870
    1ACE      O    6   1.945   1.230   2.056 -0.5096 -0.1768 -0.2895
    2ALA      N    7   1.994   1.126   1.857  0.5189  0.1656 -0.1363
    2ALA      H    8   1.946   1.071   1.788 -1.4724 -1.5053  2.3849
    2ALA     CA    9   2.149   1.121   1.870  0.2617 -0.1513  0.3489
    2ALA     HA   10   2.180   1.172   1.779 -0.7682  2.3832  1.3333
    2ALA     CB   11   2.214   1.198   1.986  0.5520 -0.2574 -0.4050
    2ALA    HB1   12   2.170   1.297   1.979  0.0755 -0.4541 -0.2115
    2ALA    HB2   13   2.178   1.163   2.083  0.6152  1.0039  0.0899
    2ALA    HB3   14   2.322   1.191   1.972  0.8045  0.3062  1.1029
    2ALA      C   15   2.197   0.976   1.864  0.6456 -0.4303 -0.3318
    2ALA      O   16   2.233   0.916   1.959  0.2533 -0.0206  0.2681
    3NME      N   17   2.203   0.912   1.745 -0.0179  0.4392 -0.1385
    3NME      H   18   2.173   0.965   1.664 -0.9435 -0.0451 -0.1264
    3NME    CH3   19   2.232   0.772   1.718 -0.3680 -0.0441  0.2374
    3NME   HH31   20   2.314   0.768   1.647 -0.1115  1.6263  0.3954
    3NME   HH32   21   2.275   0.724   1.806  0.0318 -1.3957 -0.6649
    3NME   HH33   22   2.147   0.719   1.675  0.9897 -1.1023 -1.2441
   2.72160   2.72160   2.72160
